# Tetrahedron method
       -1.7073312636        0.0000000000
       -1.6642459271        0.0000000000
       -1.6211605906        0.0000000000
       -1.5780752541        0.0000000000
       -1.5349899176        0.0000000000
       -1.4919045811        0.0000000000
       -1.4488192447        0.0000000000
       -1.4057339082        0.0000000000
       -1.3626485717        0.0000000000
       -1.3195632352        0.0000000000
       -1.2764778987        0.0000000000
       -1.2333925622        0.0000000000
       -1.1903072257        0.0000000000
       -1.1472218892        0.0000000000
       -1.1041365528        0.0000000000
       -1.0610512163        0.0000000000
       -1.0179658798        0.0000000000
       -0.9748805433        0.0399867787
       -0.9317952068        0.0738329116
       -0.8887098703        0.0913300173
       -0.8456245338        0.1047320223
       -0.8025391974        0.1113098365
       -0.7594538609        0.1169568896
       -0.7163685244        0.1217667703
       -0.6732831879        0.1218870824
       -0.6301978514        0.1202553561
       -0.5871125149        0.1176414816
       -0.5440271784        0.1115580479
       -0.5009418419        0.1077606301
       -0.4578565055        0.1017645907
       -0.4147711690        0.0941273293
       -0.3716858325        0.0852096831
       -0.3286004960        0.0767360143
       -0.2855151595        0.0691732157
       -0.2424298230        0.0635277882
       -0.1993444865        0.0595444807
       -0.1562591501        0.0574472714
       -0.1131738136        0.0565450350
       -0.0700884771        0.0566556004
       -0.0270031406        0.0572402919
        0.0160821959        0.0583709357
        0.0591675324        0.0607700932
        0.1022528689        0.0713179026
        0.1453382054        0.0827176668
        0.1884235418        0.0946889033
        0.2315088783        0.1129755861
        0.2745942148        0.1377450899
        0.3176795513        0.1663802431
        0.3607648878        0.1978624572
        0.4038502243        0.2350755006
        0.4469355608        0.2850871627
        0.4900208972        0.3349051611
        0.5331062337        0.3888735847
        0.5761915702        0.4527021731
        0.6192769067        0.5166836436
        0.6623622432        0.5834976712
        0.7054475797        0.6631824052
        0.7485329162        0.7503808792
        0.7916182527        0.8750393478
        0.8347035891        0.9526485607
        0.8777889256        1.0360044145
        0.9208742621        1.1292692441
        0.9639595986        1.2320803037
        1.0070449351        1.3541818503
        1.0501302716        1.5007469819
        1.0932156081        1.6860095773
        1.1363009445        1.9435660701
        1.1793862810        2.3706080680
        1.2224716175        3.3056331629
        1.2655569540        3.5807163562
        1.3086422905        3.6165009086
        1.3517276270        3.4057670158
        1.3948129635        3.2738905072
        1.4378983000        3.1608793402
        1.4809836364        2.9488349326
        1.5240689729        2.7916935988
        1.5671543094        2.7332701679
        1.6102396459        2.7136499924
        1.6533249824        2.7546329942
        1.6964103189        3.2825918068
        1.7394956554        3.9884401830
        1.7825809918        4.3364350249
        1.8256663283        4.9183197465
        1.8687516648        5.3987589879
        1.9118370013        5.3707336841
        1.9549223378        5.8832022570
        1.9980076743        6.2672761190
        2.0410930108        6.9052549840
        2.0841783473        5.7420165736
        2.1272636837        5.8824729843
        2.1703490202        5.2998720399
        2.2134343567        5.1175307181
        2.2565196932        5.8633207563
        2.2996050297        5.5135344154
        2.3426903662        5.9491684758
        2.3857757027        5.7605314253
        2.4288610391        5.4628371721
        2.4719463756        6.0672458881
        2.5150317121        6.1331950025
        2.5581170486        6.6776305238
        2.6012023851        6.9465932936
        2.6442877216        7.1516626125
        2.6873730581        7.1423931568
        2.7304583946        7.5674650312
        2.7735437310        7.9640824984
        2.8166290675        7.6999933075
        2.8597144040        8.1185186504
        2.9027997405        8.1889996983
        2.9458850770        8.0178134525
        2.9889704135        7.9399284171
        3.0320557500        8.0172637536
        3.0751410864        8.0816243772
        3.1182264229        8.5802870688
        3.1613117594        8.1024462318
        3.2043970959        7.9866327370
        3.2474824324        8.3509944227
        3.2905677689        8.0418573301
        3.3336531054        7.6379477390
        3.3767384419        7.3753460056
        3.4198237783        7.1360253213
        3.4629091148        6.9038023530
        3.5059944513        7.4433523404
        3.5490797878        5.8615800943
        3.5921651243        6.2859967462
        3.6352504608        6.5188061524
        3.6783357973        6.4345260174
        3.7214211337        4.4879919608
        3.7645064702        6.9531019925
        3.8075918067        9.2359490422
        3.8506771432        9.7674463363
        3.8937624797       11.2010567276
        3.9368478162       11.9263635567
        3.9799331527       12.0974585611
        4.0230184892       11.7494515953
        4.0661038256        9.3094523234
        4.1091891621        8.9059794857
        4.1522744986       10.6904397758
        4.1953598351       19.5095636991
        4.2384451716       12.1229582713
        4.2815305081       11.8847880637
        4.3246158446        8.9051378612
        4.3677011810        6.8145309593
        4.4107865175        6.7249800366
        4.4538718540        8.7279131960
        4.4969571905        8.7920519321
        4.5400425270       11.0443991748
        4.5831278635        8.3622245981
        4.6262132000        7.7254435645
        4.6692985365        6.6752404295
        4.7123838729        8.1398185462
        4.7554692094        5.9446925253
        4.7985545459        6.0961280025
        4.8416398824        6.4576444532
        4.8847252189        7.0337957700
        4.9278105554        8.2723234264
        4.9708958919        8.3958006051
        5.0139812283        9.8170208623
        5.0570665648       10.1435403361
        5.1001519013       10.2952862869
        5.1432372378       11.5069153190
        5.1863225743       11.0259315854
        5.2294079108       18.9045534691
        5.2724932473       10.5063582518
        5.3155785838        4.8467810843
        5.3586639202        3.5068771971
        5.4017492567        2.4221283717
        5.4448345932        2.1190113860
        5.4879199297        1.9083870683
        5.5310052662        0.9748086058
        5.5740906027        0.4549238498
        5.6171759392        4.2223363684
        5.6602612756        3.6435857666
        5.7033466121        6.1640219824
        5.7464319486        7.7053952859
        5.7895172851        6.4303845317
        5.8326026216        5.0081129481
        5.8756879581        3.6731125320
        5.9187732946        2.9681129019
        5.9618586311       10.3619883222
        6.0049439675       14.0017255414
        6.0480293040       11.0776742231
        6.0911146405       10.4923519419
        6.1341999770        4.9752532109
        6.1772853135        1.8357223364
        6.2203706500        0.0000000000
        6.2634559865        0.0000000000
        6.3065413229        0.0000000000
        6.3496266594        0.0000000000
        6.3927119959        0.0000000000
        6.4357973324        0.0000000000
        6.4788826689        0.0000000000
        6.5219680054        0.0000000000
        6.5650533419        0.0000000000
        6.6081386783        0.0000000000
        6.6512240148        0.0000000000
        6.6943093513        0.0000000000
        6.7373946878        0.0000000000
        6.7804800243        0.0000000000
        6.8235653608        0.0000000000
        6.8666506973        0.0000000000
        6.9097360338        0.0000000000
